 
1 atom types
1 bond types
56 atoms
64 bonds

 
  0.0000000000000  10.0000000000000 xlo xhi
  0.0000000000000   10.0000000000000 ylo yhi
  0.0000000000000   10.0000000000000 zlo zhi

Masses

1 1 #

Atoms

1     1     3     1     1     1     1
2     1     7     1     1     1     2
3     1     1     3     1     1     3
4     1     3     3     1     1     4
5     1     5     3     1     1     5
6     1     7     3     1     1     6
7     1     9     3     1     1     7
8     1     3     5     1     1     8
9     1     7     5     1     1     9
10     1     1     7     1     1    10
11     1     3     7     1     1    11
12     1     5     7     1     1    12
13     1     7     7     1     1    13
14     1     9     7     1     1    14
15     1     3     9     1     1    15
16     1     7     9     1     1    16
17     1     3     3     3     1    17
18     1     7     3     3     1    18
19     1     3     7     3     1    19
20     1     7     7     3     1    20
21     1     3     1     5     1    21
22     1     7     1     5     1    22
23     1     1     3     5     1    23
24     1     3     3     5     1    24
25     1     5     3     5     1    25
26     1     7     3     5     1    26
27     1     9     3     5     1    27
28     1     3     5     5     1    28
29     1     7     5     5     1    29
30     1     1     7     5     1    30
31     1     3     7     5     1    31
32     1     5     7     5     1    32
33     1     7     7     5     1    33
34     1     9     7     5     1    34
35     1     3     9     5     1    35
36     1     7     9     5     1    36
37     1     3     3     7     1    37
38     1     7     3     7     1    38
39     1     3     7     7     1    39
40     1     7     7     7     1    40
41     1     3     1     9     1    41
42     1     7     1     9     1    42
43     1     1     3     9     1    43
44     1     3     3     9     1    44
45     1     5     3     9     1    45
46     1     7     3     9     1    46
47     1     9     3     9     1    47
48     1     3     5     9     1    48
49     1     7     5     9     1    49
50     1     1     7     9     1    50
51     1     3     7     9     1    51
52     1     5     7     9     1    52
53     1     7     7     9     1    53
54     1     9     7     9     1    54
55     1     3     9     9     1    55
56     1     7     9     9     1    56

Bonds 

1  1  1  4 #Layer one bonds in layer one
2  1  2  6
3  1  3  4
4  1  4  8
5  1  4  5
6  1  5  6
7  1  6  9
8  1  6  7
9  1  8  11
10  1  9  13
11  1  10  11
12  1  11  15
13  1  11  12
14  1  12  13
15  1  13  16
16  1  13  14
17  1  4  17 #Between layer one and two
18  1  6  18
19  1  11  19
20  1  13  20
21  1  17  24 #Between layer two and three
22  1  18  26
23  1  19  31
24  1  20  33
25  1  21  24  #In layer 3 
26  1  22  26
27  1  23  24
28  1  24  28
29  1  24  25
30  1  25  26
31  1  26  29
32  1  26  27
33  1  28  31
34  1  29  33
35  1  30  31
36  1  31  35
37  1  31  32
38  1  32  33
39  1  33  36
40  1  33  34
41  1  24  37 #Between layer three and four
42  1  26  38
43  1  31  39
44  1  33  40
45  1  37  44 #Between layer four and five
46  1  38  46
47  1  39  51
48  1  40  53
49  1  41  44  #In layer 5 
50  1  42  46
51  1  43  44
52  1  44  48
53  1  44  45
54  1  45  46
55  1  46  49
56  1  46  47
57  1  48  51
58  1  49  53
59  1  50  51
60  1  51  55
61  1  51  52
62  1  52  53
63  1  53  56
64  1  53  54


#Bond Coeffs

#1 45.0 1





	